# vtk DataFile Version 3.0
vtk output
ASCII

DATASET UNSTRUCTURED_GRID
POINTS 39 double 0  0  0
 1  0  0
 2  0  0
 3  0  0
 4  0  0
 5  0  0
 6  0  0
 7  0  0
 8  0  0
 9  0  0
10  0  0
11  0  0
12  0  0
 0  1  0
 1  1  0
 2  1  0
 3  1  0
 4  1  0
 5  1  0
 6  1  0
 7  1  0
 8  1  0
 9  1  0
10  1  0
11  1  0
12  1  0
 0  2  0
 1  2  0
 2  2  0
 3  2  0
 4  2  0
 5  2  0
 6  2  0
 7  2  0
 8  2  0
 9  2  0
10  2  0
11  2  0
12  2  0

CELLS 24 120
4  0  1 14 13 
4  1  2 15 14 
4  2  3 16 15 
4  3  4 17 16 
4  4  5 18 17 
4  5  6 19 18 
4  6  7 20 19 
4  7  8 21 20 
4  8  9 22 21 
4  9 10 23 22 
4 10 11 24 23 
4 11 12 25 24 
4 13 14 27 26 
4 14 15 28 27 
4 15 16 29 28 
4 16 17 30 29 
4 17 18 31 30 
4 18 19 32 31 
4 19 20 33 32 
4 20 21 34 33 
4 21 22 35 34 
4 22 23 36 35 
4 23 24 37 36 
4 24 25 38 37 

CELL_TYPES 24
9
9
9
9
9
9
9
9
9
9
9
9
9
9
9
9
9
9
9
9
9
9
9
9

POINT_DATA 39

VECTORS u double 
0 0 0 
0 0 -0.00186813 
0 0 -0.00795633 
0 0 -0.0180411 
0 0 -0.0317304 
0 0 -0.0486217 
0 0 -0.0683135 
0 0 -0.0904054 
0 0 -0.114497 
0 0 -0.140189 
0 0 -0.167082 
0 0 -0.194774 
0 0 -0.22287 
0 0 0 
0 0 -0.00236436 
0 0 -0.00884437 
0 0 -0.019192 
0 0 -0.0330977 
0 0 -0.0501926 
0 0 -0.0700852 
0 0 -0.0923773 
0 0 -0.116669 
0 0 -0.142561 
0 0 -0.169653 
0 0 -0.197542 
0 0 -0.225825 
0 0 0 
0 0 -0.00215036 
0 0 -0.00871099 
0 0 -0.0193068 
0 0 -0.0335145 
0 0 -0.0509254 
0 0 -0.0711372 
0 0 -0.0937491 
0 0 -0.118361 
0 0 -0.144573 
0 0 -0.171985 
0 0 -0.200198 
0 0 -0.228814 
